5
Properties=species:S:1:pos:R:3 energy=-417.96 pbc="F F F"
C        0.99826000      -0.00246000      -0.00436000
H        2.09021000      -0.00243000       0.00414000
H        0.63379000       1.02686000       0.00414000
H        0.62704000      -0.52773000       0.87811000
H        0.64136000      -0.50747000      -0.90540000
13
Properties=species:S:1:pos:R:3 energy=-1331.79 pbc="F F F"
C       -1.26828000      -0.00009000      -0.12996000
C       -0.38242000      -1.22339000       0.10437000
C        0.99383000      -0.66921000      -0.05175000
C        0.99436000       0.66757000      -0.04455000
C       -0.38314000       1.21999000       0.11686000
H       -1.62280000       0.00534000      -1.16906000
H       -2.15524000      -0.00359000       0.51216000
H       -0.59218000      -2.00858000      -0.62799000
H       -0.51629000      -1.63095000       1.11164000
H        1.88055000      -1.28392000      -0.12756000
H        1.88085000       1.28360000      -0.11432000
H       -0.51631000       1.61738000       1.12900000
H       -0.59216000       2.01292000      -0.60702000
10
Properties=species:S:1:pos:R:3 energy=-1088.23 pbc="F F F"
N       -1.13255000      -0.00011000       0.00054000
C       -0.33985000       1.11817000       0.00022000
C        0.97436000       0.70785000      -0.00014000
C        0.97439000      -0.70802000      -0.00004000
C       -0.33997000      -1.11846000       0.00038000
H       -2.14461000      -0.00014000       0.00084000
H       -0.77818000       2.10673000       0.00028000
H        1.84006000       1.35721000      -0.00044000
H        1.84015000      -1.35761000      -0.00024000
H       -0.77821000      -2.10714000       0.00059000
11
Properties=species:S:1:pos:R:3 energy=-1131.64 pbc="F F F"
C        0.99194000       0.03647000       0.02454000
C        2.48455000      -0.04342000       0.00811000
C        3.18475000      -1.17637000       0.17240000
C        3.22964000       1.22422000      -0.20547000
O        2.66712000       2.30038000      -0.36354000
H        0.65217000       0.69891000       0.82708000
H        0.53481000      -0.94513000       0.18776000
H        0.61803000       0.42290000      -0.92885000
H        2.67938000      -2.12516000       0.33124000
H        4.26943000      -1.20024000       0.15505000
H        4.32974000       1.14179000      -0.21391000
17
Properties=species:S:1:pos:R:3 energy=-1620.54 pbc="F F F"
C        0.83447000       0.29413000      -0.33532000
C        2.26731000       0.08543000       0.08674000
C        2.51732000       0.17253000       1.57578000
N        2.11876000      -1.07574000       2.20885000
C        3.11577000      -0.86796000      -0.73245000
C        3.34467000       0.61085000      -0.84353000
H        0.72207000       0.27039000      -1.42457000
H        0.47086000       1.26464000       0.01634000
H        0.18900000      -0.48767000       0.07989000
H        1.95978000       1.01098000       2.00819000
H        3.57926000       0.34776000       1.78482000
H        1.12092000      -1.21989000       2.07406000
H        2.26288000      -1.00025000       3.21345000
H        2.65649000      -1.38067000      -1.57017000
H        3.85921000      -1.46456000      -0.21404000
H        4.25821000       1.01111000      -0.41796000
H        3.04691000       1.10028000      -1.76471000
13
Properties=species:S:1:pos:R:3 energy=-1368.53 pbc="F F F"
C        0.89590000       0.06325000      -0.00804000
C        2.39831000       0.01229000      -0.00504000
C        3.00352000      -1.36837000      -0.00829000
C        3.13902000       1.13799000       0.00000000
C        4.54502000       1.13799000       0.00000000
N        5.69603000       1.13799000       0.00000000
H        0.51648000       1.09048000      -0.00721000
H        0.49850000      -0.44001000       0.87963000
H        0.50205000      -0.43735000      -0.89853000
H        2.22822000      -2.14119000       0.02179000
H        3.64314000      -1.51586000       0.86821000
H        3.59274000      -1.53093000      -0.91692000
H        2.65877000       2.11074000       0.00252000
16
Properties=species:S:1:pos:R:3 energy=-1480.12 pbc="F F F"
C        0.91879000      -0.20850000      -0.15810000
C        2.44405000      -0.11206000      -0.19628000
C        2.99677000      -0.95394000      -1.34625000
N        2.83280000       1.29946000      -0.34659000
N        4.15861000       1.56552000      -0.24965000
C        4.45050000       2.79982000      -0.49673000
H        0.50889000       0.36307000       0.68205000
H        0.60035000      -1.24940000      -0.03587000
H        0.46823000       0.17509000      -1.08054000
H        2.83748000      -0.49551000       0.75307000
H        2.64041000      -0.59085000      -2.31682000
H        2.68387000      -1.99878000      -1.24367000
H        4.09189000      -0.93960000      -1.36038000
H        2.29793000       1.85879000       0.32284000
H        5.50035000       3.12892000      -0.44802000
H        3.70118000       3.56394000      -0.76628000
15
Properties=species:S:1:pos:R:3 energy=-1464.53 pbc="F F F"
C        1.01249000      -0.02343000      -0.01301000
N        2.46555000       0.01195000       0.04741000
C        2.96070000       1.38568000       0.00000000
C        4.40470000       1.38568000       0.00000000
C        5.59486000       1.38568000       0.00000000
C        7.03886000       1.38568000       0.00000000
H        0.67092000      -1.06224000       0.03110000
H        0.63699000       0.41428000      -0.94377000
H        0.56742000       0.50518000       0.83626000
H        2.85272000      -0.50033000      -0.74418000
H        2.59158000       1.94479000       0.86749000
H        2.59347000       1.89137000      -0.90093000
H        7.43295000       2.40652000      -0.01179000
H        7.43288000       0.86502000      -0.87819000
H        7.43289000       0.88543000       0.88997000
11
Properties=species:S:1:pos:R:3 energy=-1160.48 pbc="F F F"
N        1.01489000      -0.01959000       0.01902000
C        2.47000000       0.00000000       0.00000000
C        2.95202000       1.36117000       0.00000000
C        3.34930000       2.48307000       0.00000000
C        3.86151000       3.92725000      -0.00080000
C        4.26213000       5.05730000      -0.00098000
H        0.69358000      -0.98199000      -0.05847000
H        0.66629000       0.46716000      -0.80530000
H        2.82785000      -0.53263000      -0.88748000
H        2.84543000      -0.53852000       0.87610000
H        4.61684000       6.06191000       0.00046000
14
Properties=species:S:1:pos:R:3 energy=-1425.41 pbc="F F F"
C        0.99858000       0.03317000       0.02434000
C        2.48031000      -0.03080000       0.00681000
C        3.25995000      -1.10841000      -0.06676000
C        4.68392000      -0.70157000      -0.04692000
O        4.68092000       0.73690000      -0.03145000
C        3.31888000       1.19239000       0.08136000
H        0.55304000      -0.96482000      -0.04138000
H        0.63143000       0.62233000      -0.82187000
H        0.64725000       0.49910000       0.95031000
H        2.92394000      -2.13231000      -0.12526000
H        5.19619000      -1.06294000       0.84864000
H        5.21874000      -1.04186000      -0.93722000
H        3.11596000       1.88522000      -0.74015000
H        3.20278000       1.71104000       1.03773000
10
Properties=species:S:1:pos:R:3 energy=-1149.24 pbc="F F F"
C        0.94001000      -0.06519000      -0.00000000
C        2.27683000      -0.04170000      -0.00000000
C        2.99776000       1.18148000      -0.00000000
C        3.60813000       2.21532000      -0.00000000
C        4.38175000       3.53783000      -0.00000000
C        4.98472000       4.57545000      -0.00000000
H        0.40301000      -1.00807000      -0.00000000
H        0.35176000       0.84769000      -0.00000000
H        2.84112000      -0.96955000       0.00000000
H        5.51855000       5.49707000      -0.00000000
16
Properties=species:S:1:pos:R:3 energy=-1498.71 pbc="F F F"
C        1.15188000      -0.24831000       0.24521000
C        2.55547000       0.12918000      -0.22306000
C        2.87112000      -0.54386000      -1.56637000
O        4.23342000      -0.35270000      -1.92566000
C        2.69163000       1.65438000      -0.31234000
O        4.02237000       2.01711000      -0.66783000
H        0.93258000       0.20234000       1.21834000
H        1.05649000      -1.33375000       0.35085000
H        0.39153000       0.09149000      -0.46566000
H        3.28926000      -0.23019000       0.51065000
H        2.24139000      -0.14812000      -2.36958000
H        2.69926000      -1.62312000      -1.50463000
H        4.39900000       0.61330000      -1.88056000
H        2.45048000       2.13151000       0.64324000
H        2.01850000       2.06344000      -1.07276000
H        4.58996000       1.80248000       0.09576000
12
Properties=species:S:1:pos:R:3 energy=-1224.99 pbc="F F F"
C        3.30933000      -1.15042000      -0.18954000
O        2.55428000       0.03519000       0.04159000
C        3.24301000       1.21738000       0.07886000
C        4.55621000       1.42750000      -0.07288000
C        5.08079000       2.80313000       0.00664000
O        6.27631000       3.03482000      -0.12680000
H        2.61593000      -1.99644000      -0.19049000
H        4.03915000      -1.31085000       0.61065000
H        3.80257000      -1.11508000      -1.16636000
H        2.53128000       2.01732000       0.26062000
H        5.28563000       0.65087000      -0.25418000
H        4.34444000       3.60321000       0.19084000
10
Properties=species:S:1:pos:R:3 energy=-1087.96 pbc="F F F"
O        1.00002000      -0.00136000      -0.01114000
C        2.42000000       0.00000000       0.00000000
C        2.90202000       1.36117000       0.00000000
C        3.29930000       2.48307000       0.00000000
C        3.81271000       3.92622000       0.00001000
C        4.21458000       5.05634000       0.00002000
H        0.72132000      -0.93140000      -0.00198000
H        2.77216000      -0.54191000      -0.88303000
H        2.75793000      -0.53590000       0.89226000
H        4.56901000       6.06034000      -0.00002000
13
Properties=species:S:1:pos:R:3 energy=-1267.53 pbc="F F F"
C        1.01820000       0.05772000       0.06668000
C        2.50326000      -0.08878000      -0.00333000
C        3.15022000      -1.25453000       0.13850000
C        3.28003000       1.16035000      -0.24729000
N        4.56999000       1.21848000      -0.33553000
O        4.95239000       2.54382000      -0.56718000
H        0.73861000       0.73704000       0.87848000
H        0.52230000      -0.90169000       0.24871000
H        0.62883000       0.46144000      -0.87357000
H        2.61405000      -2.18085000       0.31692000
H        4.23333000      -1.31775000       0.08060000
H        2.66754000       2.07467000      -0.35336000
H        5.92401000       2.47402000      -0.61561000
15
Properties=species:S:1:pos:R:3 energy=-1408.96 pbc="F F F"
C        1.19389000      -0.19561000      -0.30753000
N        2.64063000      -0.10185000      -0.15959000
C        3.04911000       1.28674000       0.05286000
C        4.52883000       1.31078000       0.25896000
C        5.48490000       1.46329000      -0.89528000
O        5.15132000       2.56823000      -0.04255000
H        0.90948000      -1.24267000      -0.45099000
H        0.84216000       0.37096000      -1.17601000
H        0.67866000       0.16538000       0.58860000
H        3.08273000      -0.45342000      -1.00808000
H        2.56560000       1.69607000       0.94699000
H        2.76277000       1.90771000      -0.80480000
H        4.85173000       0.78950000       1.15039000
H        5.09339000       1.47520000      -1.90445000
H        6.47638000       1.03911000      -0.79747000
9
Properties=species:S:1:pos:R:3 energy=-1033.09 pbc="F F F"
O        0.95450000      -0.03304000       0.00420000
C        2.17231000      -0.06444000      -0.00034000
C        3.02100000       1.13953000      -0.00110000
C        4.29427000       0.74680000      -0.00656000
C        4.19309000      -0.70214000      -0.00904000
N        2.98980000      -1.16568000      -0.00552000
H        2.61881000       2.13647000       0.00234000
H        5.19569000       1.33036000      -0.00874000
H        5.10625000      -1.31413000      -0.01361000
22
Properties=species:S:1:pos:R:3 energy=-2063.98 pbc="F F F"
C        1.09061000       0.04522000      -0.64020000
C        2.59437000       0.21376000      -0.49186000
C        2.96719000       1.66307000      -0.17612000
C        4.48425000       1.82598000      -0.02538000
C        4.90362000       3.26293000       0.32618000
C        6.40920000       3.33730000       0.57849000
N        4.54074000       4.18926000      -0.74708000
H        0.84744000      -0.99542000      -0.87547000
H        0.70288000       0.67542000      -1.44676000
H        0.57299000       0.31445000       0.28578000
H        3.08472000      -0.10189000      -1.42033000
H        2.95375000      -0.44676000       0.30597000
H        2.47203000       1.97570000       0.75124000
H        2.59498000       2.31216000      -0.97716000
H        4.97975000       1.50638000      -0.95166000
H        4.83445000       1.14964000       0.76523000
H        4.38223000       3.57377000       1.23900000
H        6.98147000       3.03614000      -0.30638000
H        6.69545000       2.67737000       1.40474000
H        6.71351000       4.35501000       0.84818000
H        5.02075000       3.92607000      -1.60711000
H        4.86760000       5.12696000      -0.51721000
20
Properties=species:S:1:pos:R:3 energy=-1909.21 pbc="F F F"
C        0.81958000       0.20188000      -1.15744000
C        2.25764000       0.60281000      -1.17481000
C        2.83713000       1.36701000      -0.23319000
C        4.28433000       1.77514000      -0.25074000
N        4.45745000       3.23445000      -0.23872000
C        5.87748000       3.55968000      -0.07700000
C        3.95268000       3.84893000      -1.47025000
H        0.30040000       0.64088000      -2.01410000
H        0.31027000       0.52421000      -0.24362000
H        0.73691000      -0.88721000      -1.22600000
H        2.84580000       0.24757000      -2.01759000
H        2.25213000       1.73078000       0.60870000
H        4.80885000       1.32486000      -1.10340000
H        4.73501000       1.35240000       0.65509000
H        6.25501000       3.17468000       0.87702000
H        6.02749000       4.64479000      -0.05612000
H        6.49175000       3.14378000      -0.88513000
H        2.87078000       3.71102000      -1.56923000
H        4.43889000       3.44357000      -2.36523000
H        4.11683000       4.93275000      -1.45278000
15
Properties=species:S:1:pos:R:3 energy=-1496.97 pbc="F F F"
C        1.42057000      -0.43330000       0.99329000
C        2.31303000      -0.14426000       0.03778000
C        2.93875000       1.20454000      -0.16083000
C        4.42541000       1.06676000       0.03276000
N        5.22246000       0.97353000      -0.98339000
N        6.54078000       0.83520000      -0.56298000
C        7.31471000       0.60734000      -1.57010000
H        1.00535000      -1.43334000       1.07715000
H        1.08090000       0.31090000       1.70681000
H        2.61552000      -0.92658000      -0.65716000
H        2.56483000       1.94159000       0.55718000
H        2.72685000       1.56326000      -1.17324000
H        4.79431000       1.02166000       1.07339000
H        8.39558000       0.47292000      -1.41159000
H        6.94703000       0.53389000      -2.60812000
17
Properties=species:S:1:pos:R:3 energy=-1790.57 pbc="F F F"
C        0.95558000      -0.04925000       0.08737000
C        2.45057000       0.02444000      -0.01663000
C        3.10640000       1.20014000      -0.08951000
C        4.60017000       1.31828000      -0.20757000
C        5.30448000      -0.00571000      -0.28603000
C        4.66457000      -1.18189000      -0.21062000
C        3.17513000      -1.30278000      -0.04056000
H        0.49239000       0.94298000       0.07980000
H        0.66314000      -0.54860000       1.01657000
H        0.54482000      -0.61412000      -0.75590000
H        2.55405000       2.13546000      -0.06747000
H        4.98220000       1.87379000       0.65628000
H        4.83765000       1.89893000      -1.10593000
H        6.38380000       0.01460000      -0.40964000
H        5.23009000      -2.10779000      -0.27308000
H        2.78266000      -1.91132000      -0.86368000
H        2.97464000      -1.83841000       0.89496000
15
Properties=species:S:1:pos:R:3 energy=-1546.96 pbc="F F F"
C        2.39536000      -0.49588000      -1.40713000
C        2.46974000       0.08526000      -0.00660000
N        2.96342000       1.44841000      -0.00546000
C        2.21438000       2.59027000       0.02463000
C        3.11198000       3.63224000       0.01831000
C        4.37523000       3.01457000      -0.01339000
N        4.28923000       1.68138000      -0.02625000
H        2.01376000      -1.52088000      -1.37360000
H        3.38250000      -0.51407000      -1.88089000
H        1.73033000       0.09648000      -2.04457000
H        3.13639000      -0.50960000       0.62748000
H        1.47842000       0.08905000       0.45938000
H        1.13453000       2.56630000       0.04519000
H        2.88746000       4.68889000       0.03472000
H        5.35304000       3.47760000      -0.02704000
19
Properties=species:S:1:pos:R:3 energy=-1791.17 pbc="F F F"
C        2.13694000      -0.60862000       1.36859000
C        2.61589000      -0.10021000       0.01011000
N        1.54129000      -0.19378000      -0.97423000
C        3.06648000       1.32822000       0.09875000
C        4.32497000       1.73624000      -0.14331000
C        4.77970000       3.15568000      -0.07300000
N        5.85941000       3.26746000       0.89525000
H        2.94346000      -0.55972000       2.10868000
H        1.81100000      -1.65270000       1.30228000
H        1.29647000      -0.01820000       1.75199000
H        3.44259000      -0.73636000      -0.32830000
H        0.70377000       0.25547000      -0.60905000
H        1.29549000      -1.17372000      -1.10451000
H        2.31457000       2.06323000       0.37593000
H        5.07955000       1.00837000      -0.43396000
H        3.96291000       3.83007000       0.20621000
H        5.14239000       3.46536000      -1.05865000
H        5.49337000       3.03993000       1.81846000
H        6.15921000       4.23918000       0.94316000
15
Properties=species:S:1:pos:R:3 energy=-1476.52 pbc="F F F"
C        0.91398000      -0.26558000      -0.52046000
C        2.17431000      -0.41969000       0.31501000
N        2.87184000       0.86409000       0.42089000
N        4.02643000       0.83383000       1.13528000
C        4.67380000       1.94696000       1.11574000
C        5.88313000       1.89062000       1.88653000
C        6.89724000       1.84648000       2.53092000
H        0.39508000      -1.22624000      -0.60028000
H        1.15023000       0.07571000      -1.53396000
H        0.22276000       0.45370000      -0.06832000
H        2.83081000      -1.16178000      -0.15290000
H        1.90877000      -0.78482000       1.31357000
H        2.22108000       1.56213000       0.79057000
H        4.38890000       2.87196000       0.58967000
H        7.79358000       1.79411000       3.10292000
19
Properties=species:S:1:pos:R:3 energy=-1775.44 pbc="F F F"
C        2.39968000      -1.03667000      -0.65761000
N        2.10294000       0.26873000      -0.08035000
C        3.28850000       1.13932000      -0.04905000
C        3.42409000       2.23909000      -1.06081000
C        3.11804000       2.58190000       0.37015000
N        4.15450000       3.23671000       1.17989000
C        4.08095000       2.84497000       2.58084000
H        1.48177000      -1.62910000      -0.71338000
H        3.12033000      -1.58462000      -0.04281000
H        2.79835000      -0.93991000      -1.67200000
H        1.74526000       0.13618000       0.86564000
H        4.20910000       0.65808000       0.27647000
H        2.63321000       2.36575000      -1.79011000
H        4.41510000       2.45114000      -1.44079000
H        2.10307000       2.91981000       0.57017000
H        4.06273000       4.25028000       1.10943000
H        4.26651000       1.77245000       2.69934000
H        3.10466000       3.08625000       3.01456000
H        4.84839000       3.37652000       3.15231000
18
Properties=species:S:1:pos:R:3 energy=-1774.15 pbc="F F F"
C        0.93537000      -0.07994000       0.06119000
N        2.39034000      -0.08934000       0.12243000
C        2.93052000       1.24780000      -0.10550000
C        4.42432000       1.19467000      -0.01876000
C        5.24923000       1.57879000      -1.00471000
C        6.68603000       1.51994000      -0.88928000
C        7.51218000       1.90309000      -1.86900000
H        0.55671000      -1.09087000       0.24105000
H        0.57648000       0.24361000      -0.92140000
H        0.51017000       0.57259000       0.83062000
H        2.75051000      -0.71239000      -0.60016000
H        2.56695000       1.93866000       0.66420000
H        2.60878000       1.63144000      -1.08122000
H        4.82917000       0.82584000       0.92163000
H        4.83677000       1.95136000      -1.94040000
H        7.10727000       1.14369000       0.04150000
H        7.14797000       2.28511000      -2.81744000
H        8.58790000       1.84005000      -1.73754000
17
Properties=species:S:1:pos:R:3 energy=-1638.54 pbc="F F F"
C        1.01604000       0.69707000      -0.14657000
N        2.16105000       0.72554000       0.75651000
C        3.28933000       0.91024000       0.16375000
N        4.51543000       0.97261000       0.79053000
C        5.66827000       0.40989000       0.06706000
C        5.51200000       1.88869000       0.22181000
C        6.38839000       2.65214000       1.15146000
H        0.19473000       0.15685000       0.33443000
H        1.23484000       0.18408000      -1.08990000
H        0.67212000       1.71409000      -0.35950000
H        3.34975000       1.04117000      -0.93397000
H        5.43916000      -0.05591000      -0.88110000
H        6.33831000      -0.12902000       0.72271000
H        5.18143000       2.47885000      -0.62350000
H        6.67615000       2.06105000       2.02723000
H        5.87292000       3.55148000       1.50273000
H        7.30195000       2.96317000       0.63548000
16
Properties=species:S:1:pos:R:3 energy=-1619.78 pbc="F F F"
N        1.05708000      -0.28455000      -0.22530000
C        2.33328000       0.27152000       0.22697000
C        3.57496000      -0.45556000      -0.46653000
C        4.26797000       0.94800000      -0.14108000
C        2.86750000       1.40725000      -0.76083000
C        2.89483000       0.83489000      -2.14691000
C        3.36607000      -0.40629000      -1.95078000
H        0.25418000       0.30687000      -0.02250000
H        0.84919000      -1.20458000       0.15648000
H        2.39103000       0.46128000       1.30417000
H        3.98631000      -1.36516000      -0.03237000
H        4.44896000       1.18361000       0.91414000
H        5.16717000       1.19890000      -0.71406000
H        2.54240000       2.43844000      -0.63390000
H        2.58269000       1.30509000      -3.06375000
H        3.53047000      -1.19078000      -2.66920000
15
Properties=species:S:1:pos:R:3 energy=-1489.33 pbc="F F F"
N        1.02501000      -0.10060000      -0.13654000
C        2.49698000      -0.03262000      -0.04270000
C        3.33017000      -0.74018000      -1.08611000
N        2.63867000      -1.48543000      -2.15696000
C        3.27217000       0.76954000      -1.06204000
C        4.42829000       1.50007000      -0.62386000
C        5.39439000       2.11372000      -0.26440000
H        0.60984000       0.70526000       0.33204000
H        0.68180000      -0.92105000       0.36253000
H        2.88357000      -0.04900000       0.97448000
H        4.25582000      -1.20225000      -0.75045000
H        1.70654000      -1.07300000      -2.26587000
H        2.45481000      -2.43801000      -1.84472000
H        2.70260000       1.24767000      -1.85313000
H        6.25472000       2.65947000       0.04824000
15
Properties=species:S:1:pos:R:3 energy=-1608.86 pbc="F F F"
C        0.91992000       0.20457000      -0.01570000
C        2.25472000       0.13235000      -0.03413000
C        3.06924000       1.29383000      -0.00177000
C        3.78690000       2.25791000       0.02383000
C        4.67183000       3.38430000       0.05528000
C        4.82298000       4.21701000      -1.19103000
C        4.09645000       4.77452000      -0.00154000
H        0.31818000      -0.69813000      -0.04137000
H        0.39876000       1.15602000       0.02511000
H        2.74914000      -0.83364000      -0.07544000
H        5.56307000       3.25401000       0.66260000
H        4.23731000       3.95937000      -2.06658000
H        5.80775000       4.60853000      -1.41845000
H        4.58835000       5.54807000       0.57716000
H        3.02130000       4.89348000      -0.07337000
10
Properties=species:S:1:pos:R:3 energy=-1150.99 pbc="F F F"
N        1.05400000      -0.29545000       0.00000000
C        2.39571000      -0.03804000       0.00000000
C        3.05352000       1.13799000       0.00000000
C        2.35052000       2.35562000       0.00000000
N        1.77502000       3.35243000       0.00000000
C        4.45952000       1.13799000       0.00000000
N        5.61053000       1.13799000       0.00000000
H        0.71423000      -1.25372000      -0.00000000
H        0.36610000       0.45453000      -0.00000000
H        2.96834000      -0.96779000       0.00000000
13
Properties=species:S:1:pos:R:3 energy=-1359.16 pbc="F F F"
C       -1.29576000       0.64979000       0.06655000
C       -1.01915000      -0.78881000      -0.15204000
O       -0.30383000      -1.46314000       0.88767000
C        0.45106000      -1.09718000      -0.27538000
C        1.14600000       0.26884000      -0.26911000
O        0.99315000       1.08727000       0.89951000
C        0.03102000       1.27531000      -0.14243000
H       -2.01442000       1.01892000      -0.67223000
H       -1.68978000       0.84594000       1.06859000
H       -1.75746000      -1.33676000      -0.71403000
H        0.77574000      -1.87054000      -0.95502000
H        1.96554000       0.46797000      -0.94458000
H        0.04089000       2.19902000      -0.69816000
15
Properties=species:S:1:pos:R:3 energy=-1488.77 pbc="F F F"
C        0.79488000       1.04266000      -0.51922000
O       -0.28896000       0.29050000       0.04839000
C        0.94954000      -0.40083000      -0.13588000
C        1.61277000      -0.88497000       1.11892000
C        1.31244000      -0.27154000       2.49748000
O        1.27364000      -1.59056000       3.10347000
C        1.12962000      -2.18189000       1.78471000
H        0.72933000       1.29245000      -1.57097000
H        1.25661000       1.80213000       0.09876000
H        1.01071000      -1.14331000      -0.92123000
H        2.69753000      -0.92056000       0.93854000
H        0.35170000       0.23919000       2.61421000
H        2.11191000       0.34665000       2.91461000
H        1.78392000      -3.04769000       1.65029000
H        0.09017000      -2.46720000       1.59209000
17
Properties=species:S:1:pos:R:3 energy=-1714.78 pbc="F F F"
C        0.99841000       0.10205000       0.20845000
C        2.48580000      -0.05065000      -0.08723000
C        2.85952000      -1.48746000      -0.51194000
C        2.78252000      -1.49943000      -2.04498000
C        3.14215000      -0.09973000      -2.43154000
O        2.07283000       0.84633000      -2.39088000
C        2.93707000       0.79191000      -1.25056000
H        0.75676000       1.14532000       0.43616000
H        0.71305000      -0.50994000       1.07032000
H        0.37786000      -0.20474000      -0.63970000
H        3.05125000       0.21973000       0.81189000
H        2.23178000      -2.25743000      -0.05343000
H        3.89740000      -1.68375000      -0.21252000
H        3.47626000      -2.23194000      -2.46780000
H        1.76955000      -1.74480000      -2.38319000
H        3.97444000       0.03782000      -3.10095000
H        3.61362000       1.60376000      -1.04066000
11
Properties=species:S:1:pos:R:3 energy=-1283.19 pbc="F F F"
C        1.00000000       0.00000000       0.00000000
C        2.19016000       0.00000000       0.00000000
C        3.63416000       0.00000000       0.00000000
C        4.11618000       1.36117000       0.00000000
C        4.51346000       2.48307000       0.00000000
C        5.02528000       3.92623000       0.00000000
C        5.42681000       5.05822000       0.00000000
H       -0.06572000       0.00591000       0.00000000
H        4.01199000      -0.53452000      -0.87854000
H        4.01199000      -0.53452000       0.87854000
H        5.78161000       6.06143000       0.00000000
15
Properties=species:S:1:pos:R:3 energy=-1542.04 pbc="F F F"
C        0.88466000      -0.02065000       0.16837000
C        2.39388000      -0.00489000      -0.04369000
C        3.14223000       1.02269000       0.82817000
O        3.78586000      -0.01715000       1.60098000
C        3.15965000      -1.04461000       0.79807000
C        2.74101000       0.01862000      -1.45741000
C        3.03092000       0.03800000      -2.62152000
H        0.62808000      -0.03850000       1.23382000
H        0.42985000      -0.90468000      -0.29324000
H        0.41498000       0.86885000      -0.26712000
H        2.51788000       1.65657000       1.46659000
H        3.88066000       1.65157000       0.31934000
H        3.90842000      -1.64581000       0.27144000
H        2.54630000      -1.70717000       1.41759000
H        3.29304000       0.05525000      -3.65547000
15