17
Lattice="100.0 0.0 0.0 0.0 100.0 0.0 0.0 0.0 100.0" Properties=species:S:1:pos:R:3 energy=-1605.63 pbc="F F F"
C       50.28730000      51.20086000      49.74562000
N       51.60271000      51.83297000      49.80832000
C       52.59633000      51.02536000      49.73389000
N       53.91388000      51.38432000      49.76395000
C       54.38302000      52.70071000      50.18745000
C       54.01076000      53.80266000      49.18694000
O       52.68484000      54.28220000      49.39242000
H       49.71463000      51.46841000      50.63887000
H       50.31950000      50.10768000      49.68225000
H       49.74631000      51.57502000      48.87119000
H       52.47575000      49.93224000      49.62031000
H       54.57286000      50.63268000      49.93754000
H       55.47519000      52.65084000      50.25508000
H       53.99345000      52.92808000      51.18583000
H       54.10044000      53.45668000      48.15196000
H       54.67861000      54.65945000      49.31980000
H       52.12115000      53.47890000      49.49210000
